2
Timestep 0
Cu 0.000000000000000E+00 0.000000000000000E+00 0.000000000000000E+00
Cu 0.180500000000000E+01 0.180500000000000E+01 0.000000000000000E+00