8192
Timestep 0
Cu 0.000000000000000E+00 0.000000000000000E+00 0.000000000000000E+00
Cu 0.180500000000000E+01 0.180500000000000E+01 0.000000000000000E+00
Cu 0.000000000000000E+00 0.180500000000000E+01 0.180500000000000E+01
Cu 0.180500000000000E+01 0.000000000000000E+00 0.180500000000000E+01
Cu 0.361000000000000E+01 0.000000000000000E+00 0.000000000000000E+00
Cu 0.541500000000000E+01 0.180500000000000E+01 0.000000000000000E+00
Cu 0.361000000000000E+01 0.180500000000000E+01 0.180500000000000E+01
Cu 0.541500000000000E+01 0.000000000000000E+00 0.180500000000000E+01
Cu 0.722000000000000E+01 0.000000000000000E+00 0.000000000000000E+00
Cu 0.902500000000000E+01 0.180500000000000E+01 0.000000000000000E+00
Cu 0.722000000000000E+01 0.180500000000000E+01 0.180500000000000E+01
Cu 0.902500000000000E+01 0.000000000000000E+00 0.180500000000000E+01
Cu 0.108300000000000E+02 0.000000000000000E+00 0.000000000000000E+00
Cu 0.126350000000000E+02 0.180500000000000E+01 0.000000000000000E+00
Cu 0.108300000000000E+02 0.180500000000000E+01 0.180500000000000E+01
Cu 0.126350000000000E+02 0.000000000000000E+00 0.180500000000000E+01
Cu 0.144400000000000E+02 0.000000000000000E+00 0.000000000000000E+00
Cu 0.162450000000000E+02 0.180500000000000E+01 0.000000000000000E+00
Cu 0.144400000000000E+02 0.180500000000000E+01 0.180500000000000E+01
Cu 0.162450000000000E+02 0.000000000000000E+00 0.180500000000000E+01
Cu 0.180500000000000E+02 0.000000000000000E+00 0.000000000000000E+00
Cu 0.198550000000000E+02 0.180500000000000E+01 0.000000000000000E+00
Cu 0.180500000000000E+02 0.180500000000000E+01 0.180500000000000E+01
Cu 0.198550000000000E+02 0.000000000000000E+00 0.180500000000000E+01
Cu 0.216600000000000E+02 0.000000000000000E+00 0.000000000000000E+00
Cu 0.234650000000000E+02 0.180500000000000E+01 0.000000000000000E+00
Cu 0.216600000000000E+02 0.180500000000000E+01 0.180500000000000E+01
Cu 0.234650000000000E+02 0.000000000000000E+00 0.180500000000000E+01
Cu 0.252700000000000E+02 0.000000000000000E+00 0.000000000000000E+00
Cu 0.270750000000000E+02 0.180500000000000E+01 0.000000000000000E+00
Cu 0.252700000000000E+02 0.180500000000000E+01 0.180500000000000E+01
Cu 0.270750000000000E+02 0.000000000000000E+00 0.180500000000000E+01
Cu 0.288800000000000E+02 0.000000000000000E+00 0.000000000000000E+00
Cu 0.306850000000000E+02 0.180500000000000E+01 0.000000000000000E+00
Cu 0.288800000000000E+02 0.180500000000000E+01 0.180500000000000E+01
Cu 0.306850000000000E+02 0.000000000000000E+00 0.180500000000000E+01
Cu 0.324900000000000E+02 0.000000000000000E+00 0.000000000000000E+00
Cu 0.342950000000000E+02 0.180500000000000E+01 0.000000000000000E+00
Cu 0.324900000000000E+02 0.180500000000000E+01 0.180500000000000E+01
Cu 0.342950000000000E+02 0.000000000000000E+00 0.180500000000000E+01
Cu 0.361000000000000E+02 0.000000000000000E+00 0.000000000000000E+00
Cu 0.379050000000000E+02 0.180500000000000E+01 0.000000000000000E+00
Cu 0.361000000000000E+02 0.180500000000000E+01 0.180500000000000E+01
Cu 0.379050000000000E+02 0.000000000000000E+00 0.180500000000000E+01
Cu 0.397100000000000E+02 0.000000000000000E+00 0.000000000000000E+00
Cu 0.415150000000000E+02 0.180500000000000E+01 0.000000000000000E+00
Cu 0.397100000000000E+02 0.180500000000000E+01 0.180500000000000E+01
Cu 0.415150000000000E+02 0.000000000000000E+00 0.180500000000000E+01
Cu 0.433200000000000E+02 0.000000000000000E+00 0.000000000000000E+00
Cu 0.451250000000000E+02 0.180500000000000E+01 0.000000000000000E+00
Cu 0.433200000000000E+02 0.180500000000000E+01 0.180500000000000E+01
Cu 0.451250000000000E+02 0.000000000000000E+00 0.180500000000000E+01
Cu 0.469300000000000E+02 0.000000000000000E+00 0.000000000000000E+00
Cu 0.487350000000000E+02 0.180500000000000E+01 0.000000000000000E+00
Cu 0.469300000000000E+02 0.180500000000000E+01 0.180500000000000E+01
Cu 0.487350000000000E+02 0.000000000000000E+00 0.180500000000000E+01
Cu 0.505400000000000E+02 0.000000000000000E+00 0.000000000000000E+00
Cu 0.523450000000000E+02 0.180500000000000E+01 0.000000000000000E+00
Cu 0.505400000000000E+02 0.180500000000000E+01 0.180500000000000E+01
Cu 0.523450000000000E+02 0.000000000000000E+00 0.180500000000000E+01
Cu 0.541500000000000E+02 0.000000000000000E+00 0.000000000000000E+00
Cu 0.559550000000000E+02 0.180500000000000E+01 0.000000000000000E+00
Cu 0.541500000000000E+02 0.180500000000000E+01 0.180500000000000E+01
Cu 0.559550000000000E+02 0.000000000000000E+00 0.180500000000000E+01
Cu 0.000000000000000E+00 0.361000000000000E+01 0.000000000000000E+00
Cu 0.180500000000000E+01 0.541500000000000E+01 0.000000000000000E+00
Cu 0.000000000000000E+00 0.541500000000000E+01 0.180500000000000E+01
Cu 0.180500000000000E+01 0.361000000000000E+01 0.180500000000000E+01
Cu 0.361000000000000E+01 0.361000000000000E+01 0.000000000000000E+00
Cu 0.541500000000000E+01 0.541500000000000E+01 0.000000000000000E+00
Cu 0.361000000000000E+01 0.541500000000000E+01 0.180500000000000E+01
Cu 0.541500000000000E+01 0.361000000000000E+01 0.180500000000000E+01
Cu 0.722000000000000E+01 0.361000000000000E+01 0.000000000000000E+00
Cu 0.902500000000000E+01 0.541500000000000E+01 0.000000000000000E+00
Cu 0.722000000000000E+01 0.541500000000000E+01 0.180500000000000E+01
Cu 0.902500000000000E+01 0.361000000000000E+01 0.180500000000000E+01
Cu 0.108300000000000E+02 0.361000000000000E+01 0.000000000000000E+00
Cu 0.126350000000000E+02 0.541500000000000E+01 0.000000000000000E+00
Cu 0.108300000000000E+02 0.541500000000000E+01 0.180500000000000E+01
Cu 0.126350000000000E+02 0.361000000000000E+01 0.180500000000000E+01
Cu 0.144400000000000E+02 0.361000000000000E+01 0.000000000000000E+00
Cu 0.162450000000000E+02 0.541500000000000E+01 0.000000000000000E+00
Cu 0.144400000000000E+02 0.541500000000000E+01 0.180500000000000E+01
Cu 0.162450000000000E+02 0.361000000000000E+01 0.180500000000000E+01
Cu 0.180500000000000E+02 0.361000000000000E+01 0.000000000000000E+00
Cu 0.198550000000000E+02 0.541500000000000E+01 0.000000000000000E+00
Cu 0.180500000000000E+02 0.541500000000000E+01 0.180500000000000E+01
Cu 0.198550000000000E+02 0.361000000000000E+01 0.180500000000000E+01
Cu 0.216600000000000E+02 0.361000000000000E+01 0.000000000000000E+00
Cu 0.234650000000000E+02 0.541500000000000E+01 0.000000000000000E+00
Cu 0.216600000000000E+02 0.541500000000000E+01 0.180500000000000E+01
Cu 0.234650000000000E+02 0.361000000000000E+01 0.180500000000000E+01
Cu 0.252700000000000E+02 0.361000000000000E+01 0.000000000000000E+00
Cu 0.270750000000000E+02 0.541500000000000E+01 0.000000000000000E+00
Cu 0.252700000000000E+02 0.541500000000000E+01 0.180500000000000E+01
Cu 0.270750000000000E+02 0.361000000000000E+01 0.180500000000000E+01
Cu 0.288800000000000E+02 0.361000000000000E+01 0.000000000000000E+00
Cu 0.306850000000000E+02 0.541500000000000E+01 0.000000000000000E+00
Cu 0.288800000000000E+02 0.541500000000000E+01 0.180500000000000E+01
Cu 0.306850000000000E+02 0.361000000000000E+01 0.180500000000000E+01
Cu 0.324900000000000E+02 0.361000000000000E+01 0.000000000000000E+00
Cu 0.342950000000000E+02 0.541500000000000E+01 0.000000000000000E+00
Cu 0.324900000000000E+02 0.541500000000000E+01 0.180500000000000E+01
Cu 0.342950000000000E+02 0.361000000000000E+01 0.180500000000000E+01
Cu 0.361000000000000E+02 0.361000000000000E+01 0.000000000000000E+00
Cu 0.379050000000000E+02 0.541500000000000E+01 0.000000000000000E+00
Cu 0.361000000000000E+02 0.541500000000000E+01 0.180500000000000E+01
Cu 0.379050000000000E+02 0.361000000000000E+01 0.180500000000000E+01
Cu 0.397100000000000E+02 0.361000000000000E+01 0.000000000000000E+00
Cu 0.415150000000000E+02 0.541500000000000E+01 0.000000000000000E+00
Cu 0.397100000000000E+02 0.541500000000000E+01 0.180500000000000E+01
Cu 0.415150000000000E+02 0.361000000000000E+01 0.180500000000000E+01
Cu 0.433200000000000E+02 0.361000000000000E+01 0.000000000000000E+00
Cu 0.451250000000000E+02 0.541500000000000E+01 0.000000000000000E+00
Cu 0.433200000000000E+02 0.541500000000000E+01 0.180500000000000E+01
Cu 0.451250000000000E+02 0.361000000000000E+01 0.180500000000000E+01
Cu 0.469300000000000E+02 0.361000000000000E+01 0.000000000000000E+00
Cu 0.487350000000000E+02 0.541500000000000E+01 0.000000000000000E+00
Cu 0.469300000000000E+02 0.541500000000000E+01 0.180500000000000E+01
Cu 0.487350000000000E+02 0.361000000000000E+01 0.180500000000000E+01
Cu 0.505400000000000E+02 0.361000000000000E+01 0.000000000000000E+00
Cu 0.523450000000000E+02 0.541500000000000E+01 0.000000000000000E+00
Cu 0.505400000000000E+02 0.541500000000000E+01 0.180500000000000E+01
Cu 0.523450000000000E+02 0.361000000000000E+01 0.180500000000000E+01
Cu 0.541500000000000E+02 0.361000000000000E+01 0.000000000000000E+00
Cu 0.559550000000000E+02 0.541500000000000E+01 0.000000000000000E+00
Cu 0.541500000000000E+02 0.541500000000000E+01 0.180500000000000E+01
Cu 0.559550000000000E+02 0.361000000000000E+01 0.180500000000000E+01
Cu 0.000000000000000E+00 0.722000000000000E+01 0.000000000000000E+00
Cu 0.180500000000000E+01 0.902500000000000E+01 0.000000000000000E+00
Cu 0.000000000000000E+00 0.902500000000000E+01 0.180500000000000E+01
Cu 0.180500000000000E+01 0.722000000000000E+01 0.180500000000000E+01
Cu 0.361000000000000E+01 0.722000000000000E+01 0.000000000000000E+00
Cu 0.541500000000000E+01 0.902500000000000E+01 0.000000000000000E+00
Cu 0.361000000000000E+01 0.902500000000000E+01 0.180500000000000E+01
Cu 0.541500000000000E+01 0.722000000000000E+01 0.180500000000000E+01
Cu 0.722000000000000E+01 0.722000000000000E+01 0.000000000000000E+00
Cu 0.902500000000000E+01 0.902500000000000E+01 0.000000000000000E+00
Cu 0.722000000000000E+01 0.902500000000000E+01 0.180500000000000E+01
Cu 0.902500000000000E+01 0.722000000000000E+01 0.180500000000000E+01
Cu 0.108300000000000E+02 0.722000000000000E+01 0.000000000000000E+00
Cu 0.126350000000000E+02 0.902500000000000E+01 0.000000000000000E+00
Cu 0.108300000000000E+02 0.902500000000000E+01 0.180500000000000E+01
Cu 0.126350000000000E+02 0.722000000000000E+01 0.180500000000000E+01
Cu 0.144400000000000E+02 0.722000000000000E+01 0.000000000000000E+00
Cu 0.162450000000000E+02 0.902500000000000E+01 0.000000000000000E+00
Cu 0.144400000000000E+02 0.902500000000000E+01 0.180500000000000E+01
Cu 0.162450000000000E+02 0.722000000000000E+01 0.180500000000000E+01
Cu 0.180500000000000E+02 0.722000000000000E+01 0.000000000000000E+00
Cu 0.198550000000000E+02 0.902500000000000E+01 0.000000000000000E+00
Cu 0.180500000000000E+02 0.902500000000000E+01 0.180500000000000E+01
Cu 0.198550000000000E+02 0.722000000000000E+01 0.180500000000000E+01
Cu 0.216600000000000E+02 0.722000000000000E+01 0.000000000000000E+00
Cu 0.234650000000000E+02 0.902500000000000E+01 0.000000000000000E+00
Cu 0.216600000000000E+02 0.902500000000000E+01 0.180500000000000E+01
Cu 0.234650000000000E+02 0.722000000000000E+01 0.180500000000000E+01
Cu 0.252700000000000E+02 0.722000000000000E+01 0.000000000000000E+00
Cu 0.270750000000000E+02 0.902500000000000E+01 0.000000000000000E+00
Cu 0.252700000000000E+02 0.902500000000000E+01 0.180500000000000E+01
Cu 0.270750000000000E+02 0.722000000000000E+01 0.180500000000000E+01
Cu 0.288800000000000E+02 0.722000000000000E+01 0.000000000000000E+00
Cu 0.306850000000000E+02 0.902500000000000E+01 0.000000000000000E+00
Cu 0.288800000000000E+02 0.902500000000000E+01 0.180500000000000E+01
Cu 0.306850000000000E+02 0.722000000000000E+01 0.180500000000000E+01
Cu 0.324900000000000E+02 0.722000000000000E+01 0.000000000000000E+00
Cu 0.342950000000000E+02 0.902500000000000E+01 0.000000000000000E+00
Cu 0.324900000000000E+02 0.902500000000000E+01 0.180500000000000E+01
Cu 0.342950000000000E+02 0.722000000000000E+01 0.180500000000000E+01
Cu 0.361000000000000E+02 0.722000000000000E+01 0.000000000000000E+00
Cu 0.379050000000000E+02 0.902500000000000E+01 0.000000000000000E+00
Cu 0.361000000000000E+02 0.902500000000000E+01 0.180500000000000E+01
Cu 0.379050000000000E+02 0.722000000000000E+01 0.180500000000000E+01
Cu 0.397100000000000E+02 0.722000000000000E+01 0.000000000000000E+00
Cu 0.415150000000000E+02 0.902500000000000E+01 0.000000000000000E+00
Cu 0.397100000000000E+02 0.902500000000000E+01 0.180500000000000E+01
Cu 0.415150000000000E+02 0.722000000000000E+01 0.180500000000000E+01
Cu 0.433200000000000E+02 0.722000000000000E+01 0.000000000000000E+00
Cu 0.451250000000000E+02 0.902500000000000E+01 0.000000000000000E+00
Cu 0.433200000000000E+02 0.902500000000000E+01 0.180500000000000E+01
Cu 0.451250000000000E+02 0.722000000000000E+01 0.180500000000000E+01
Cu 0.469300000000000E+02 0.722000000000000E+01 0.000000000000000E+00
Cu 0.487350000000000E+02 0.902500000000000E+01 0.000000000000000E+00
Cu 0.469300000000000E+02 0.902500000000000E+01 0.180500000000000E+01
Cu 0.487350000000000E+02 0.722000000000000E+01 0.180500000000000E+01
Cu 0.505400000000000E+02 0.722000000000000E+01 0.000000000000000E+00
Cu 0.523450000000000E+02 0.902500000000000E+01 0.000000000000000E+00
Cu 0.505400000000000E+02 0.902500000000000E+01 0.180500000000000E+01
Cu 0.523450000000000E+02 0.722000000000000E+01 0.180500000000000E+01
Cu 0.541500000000000E+02 0.722000000000000E+01 0.000000000000000E+00
Cu 0.559550000000000E+02 0.902500000000000E+01 0.000000000000000E+00
Cu 0.541500000000000E+02 0.902500000000000E+01 0.180500000000000E+01
Cu 0.559550000000000E+02 0.722000000000000E+01 0.180500000000000E+01
Cu 0.000000000000000E+00 0.108300000000000E+02 0.000000000000000E+00
Cu 0.180500000000000E+01 0.126350000000000E+02 0.000000000000000E+00
Cu 0.000000000000000E+00 0.126350000000000E+02 0.180500000000000E+01
Cu 0.180500000000000E+01 0.108300000000000E+02 0.180500000000000E+01
Cu 0.361000000000000E+01 0.108300000000000E+02 0.000000000000000E+00
Cu 0.541500000000000E+01 0.126350000000000E+02 0.000000000000000E+00
Cu 0.361000000000000E+01 0.126350000000000E+02 0.180500000000000E+01
Cu 0.541500000000000E+01 0.108300000000000E+02 0.180500000000000E+01
Cu 0.722000000000000E+01 0.108300000000000E+02 0.000000000000000E+00
Cu 0.902500000000000E+01 0.126350000000000E+02 0.000000000000000E+00
Cu 0.722000000000000E+01 0.126350000000000E+02 0.180500000000000E+01
Cu 0.902500000000000E+01 0.108300000000000E+02 0.180500000000000E+01
Cu 0.108300000000000E+02 0.108300000000000E+02 0.000000000000000E+00
Cu 0.126350000000000E+02 0.126350000000000E+02 0.000000000000000E+00
Cu 0.108300000000000E+02 0.126350000000000E+02 0.180500000000000E+01
Cu 0.126350000000000E+02 0.108300000000000E+02 0.180500000000000E+01
Cu 0.144400000000000E+02 0.108300000000000E+02 0.000000000000000E+00
Cu 0.162450000000000E+02 0.126350000000000E+02 0.000000000000000E+00
Cu 0.144400000000000E+02 0.126350000000000E+02 0.180500000000000E+01
Cu 0.162450000000000E+02 0.108300000000000E+02 0.180500000000000E+01
Cu 0.180500000000000E+02 0.108300000000000E+02 0.000000000000000E+00
Cu 0.198550000000000E+02 0.126350000000000E+02 0.000000000000000E+00
Cu 0.180500000000000E+02 0.126350000000000E+02 0.180500000000000E+01
Cu 0.198550000000000E+02 0.108300000000000E+02 0.180500000000000E+01
Cu 0.216600000000000E+02 0.108300000000000E+02 0.000000000000000E+00
Cu 0.234650000000000E+02 0.126350000000000E+02 0.000000000000000E+00
Cu 0.216600000000000E+02 0.126350000000000E+02 0.180500000000000E+01
Cu 0.234650000000000E+02 0.108300000000000E+02 0.180500000000000E+01
Cu 0.252700000000000E+02 0.108300000000000E+02 0.000000000000000E+00
Cu 0.270750000000000E+02 0.126350000000000E+02 0.000000000000000E+00
Cu 0.252700000000000E+02 0.126350000000000E+02 0.180500000000000E+01
Cu 0.270750000000000E+02 0.108300000000000E+02 0.180500000000000E+01
Cu 0.288800000000000E+02 0.108300000000000E+02 0.000000000000000E+00
Cu 0.306850000000000E+02 0.126350000000000E+02 0.000000000000000E+00
Cu 0.288800000000000E+02 0.126350000000000E+02 0.180500000000000E+01
Cu 0.306850000000000E+02 0.108300000000000E+02 0.180500000000000E+01
Cu 0.324900000000000E+02 0.108300000000000E+02 0.000000000000000E+00
Cu 0.342950000000000E+02 0.126350000000000E+02 0.000000000000000E+00
Cu 0.324900000000000E+02 0.126350000000000E+02 0.180500000000000E+01
Cu 0.342950000000000E+02 0.108300000000000E+02 0.180500000000000E+01
Cu 0.361000000000000E+02 0.108300000000000E+02 0.000000000000000E+00
Cu 0.379050000000000E+02 0.126350000000000E+02 0.000000000000000E+00
Cu 0.361000000000000E+02 0.126350000000000E+02 0.180500000000000E+01
Cu 0.379050000000000E+02 0.108300000000000E+02 0.180500000000000E+01
Cu 0.397100000000000E+02 0.108300000000000E+02 0.000000000000000E+00
Cu 0.415150000000000E+02 0.126350000000000E+02 0.000000000000000E+00
Cu 0.397100000000000E+02 0.126350000000000E+02 0.180500000000000E+01
Cu 0.415150000000000E+02 0.108300000000000E+02 0.180500000000000E+01
Cu 0.433200000000000E+02 0.108300000000000E+02 0.000000000000000E+00
Cu 0.451250000000000E+02 0.126350000000000E+02 0.000000000000000E+00
Cu 0.433200000000000E+02 0.126350000000000E+02 0.180500000000000E+01
Cu 0.451250000000000E+02 0.108300000000000E+02 0.180500000000000E+01
Cu 0.469300000000000E+02 0.108300000000000E+02 0.000000000000000E+00
Cu 0.487350000000000E+02 0.126350000000000E+02 0.000000000000000E+00
Cu 0.469300000000000E+02 0.126350000000000E+02 0.180500000000000E+01
Cu 0.487350000000000E+02 0.108300000000000E+02 0.180500000000000E+01
Cu 0.505400000000000E+02 0.108300000000000E+02 0.000000000000000E+00
Cu 0.523450000000000E+02 0.126350000000000E+02 0.000000000000000E+00
Cu 0.505400000000000E+02 0.126350000000000E+02 0.180500000000000E+01
Cu 0.523450000000000E+02 0.108300000000000E+02 0.180500000000000E+01
Cu 0.541500000000000E+02 0.108300000000000E+02 0.000000000000000E+00
Cu 0.559550000000000E+02 0.126350000000000E+02 0.000000000000000E+00
Cu 0.541500000000000E+02 0.126350000000000E+02 0.180500000000000E+01
Cu 0.559550000000000E+02 0.108300000000000E+02 0.180500000000000E+01
Cu 0.000000000000000E+00 0.144400000000000E+02 0.000000000000000E+00
Cu 0.180500000000000E+01 0.162450000000000E+02 0.000000000000000E+00
Cu 0.000000000000000E+00 0.162450000000000E+02 0.180500000000000E+01
Cu 0.180500000000000E+01 0.144400000000000E+02 0.180500000000000E+01
Cu 0.361000000000000E+01 0.144400000000000E+02 0.000000000000000E+00
Cu 0.541500000000000E+01 0.162450000000000E+02 0.000000000000000E+00
Cu 0.361000000000000E+01 0.162450000000000E+02 0.180500000000000E+01
Cu 0.541500000000000E+01 0.144400000000000E+02 0.180500000000000E+01
Cu 0.722000000000000E+01 0.144400000000000E+02 0.000000000000000E+00
Cu 0.902500000000000E+01 0.162450000000000E+02 0.000000000000000E+00
Cu 0.722000000000000E+01 0.162450000000000E+02 0.180500000000000E+01
Cu 0.902500000000000E+01 0.144400000000000E+02 0.180500000000000E+01
Cu 0.108300000000000E+02 0.144400000000000E+02 0.000000000000000E+00
Cu 0.126350000000000E+02 0.162450000000000E+02 0.000000000000000E+00
Cu 0.108300000000000E+02 0.162450000000000E+02 0.180500000000000E+01
Cu 0.126350000000000E+02 0.144400000000000E+02 0.180500000000000E+01
Cu 0.144400000000000E+02 0.144400000000000E+02 0.000000000000000E+00
Cu 0.162450000000000E+02 0.162450000000000E+02 0.000000000000000E+00
Cu 0.144400000000000E+02 0.162450000000000E+02 0.180500000000000E+01
Cu 0.162450000000000E+02 0.144400000000000E+02 0.180500000000000E+01
Cu 0.180500000000000E+02 0.144400000000000E+02 0.000000000000000E+00
Cu 0.198550000000000E+02 0.162450000000000E+02 0.000000000000000E+00
Cu 0.180500000000000E+02 0.162450000000000E+02 0.180500000000000E+01
Cu 0.198550000000000E+02 0.144400000000000E+02 0.180500000000000E+01
Cu 0.216600000000000E+02 0.144400000000000E+02 0.000000000000000E+00
Cu 0.234650000000000E+02 0.162450000000000E+02 0.000000000000000E+00
Cu 0.216600000000000E+02 0.162450000000000E+02 0.180500000000000E+01
Cu 0.234650000000000E+02 0.144400000000000E+02 0.180500000000000E+01
Cu 0.252700000000000E+02 0.144400000000000E+02 0.000000000000000E+00
Cu 0.270750000000000E+02 0.162450000000000E+02 0.000000000000000E+00
Cu 0.252700000000000E+02 0.162450000000000E+02 0.180500000000000E+01
Cu 0.270750000000000E+02 0.144400000000000E+02 0.180500000000000E+01
Cu 0.288800000000000E+02 0.144400000000000E+02 0.000000000000000E+00
Cu 0.306850000000000E+02 0.162450000000000E+02 0.000000000000000E+00
Cu 0.288800000000000E+02 0.162450000000000E+02 0.180500000000000E+01
Cu 0.306850000000000E+02 0.144400000000000E+02 0.180500000000000E+01
Cu 0.324900000000000E+02 0.144400000000000E+02 0.000000000000000E+00
Cu 0.342950000000000E+02 0.162450000000000E+02 0.000000000000000E+00
Cu 0.324900000000000E+02 0.162450000000000E+02 0.180500000000000E+01
Cu 0.342950000000000E+02 0.144400000000000E+02 0.180500000000000E+01
Cu 0.361000000000000E+02 0.144400000000000E+02 0.000000000000000E+00
Cu 0.379050000000000E+02 0.162450000000000E+02 0.000000000000000E+00
Cu 0.361000000000000E+02 0.162450000000000E+02 0.180500000000000E+01
Cu 0.379050000000000E+02 0.144400000000000E+02 0.180500000000000E+01
Cu 0.397100000000000E+02 0.144400000000000E+02 0.000000000000000E+00
Cu 0.415150000000000E+02 0.162450000000000E+02 0.000000000000000E+00
Cu 0.397100000000000E+02 0.162450000000000E+02 0.180500000000000E+01
Cu 0.415150000000000E+02 0.144400000000000E+02 0.180500000000000E+01
Cu 0.433200000000000E+02 0.144400000000000E+02 0.000000000000000E+00
Cu 0.451250000000000E+02 0.162450000000000E+02 0.000000000000000E+00
Cu 0.433200000000000E+02 0.162450000000000E+02 0.180500000000000E+01
Cu 0.451250000000000E+02 0.144400000000000E+02 0.180500000000000E+01
Cu 0.469300000000000E+02 0.144400000000000E+02 0.000000000000000E+00
Cu 0.487350000000000E+02 0.162450000000000E+02 0.000000000000000E+00
Cu 0.469300000000000E+02 0.162450000000000E+02 0.180500000000000E+01
Cu 0.487350000000000E+02 0.144400000000000E+02 0.180500000000000E+01
Cu 0.505400000000000E+02 0.144400000000000E+02 0.000000000000000E+00
Cu 0.523450000000000E+02 0.162450000000000E+02 0.000000000000000E+00
Cu 0.505400000000000E+02 0.162450000000000E+02 0.180500000000000E+01
Cu 0.523450000000000E+02 0.144400000000000E+02 0.180500000000000E+01
Cu 0.541500000000000E+02 0.144400000000000E+02 0.000000000000000E+00
Cu 0.559550000000000E+02 0.162450000000000E+02 0.000000000000000E+00
Cu 0.541500000000000E+02 0.162450000000000E+02 0.180500000000000E+01
Cu 0.559550000000000E+02 0.144400000000000E+02 0.180500000000000E+01
Cu 0.000000000000000E+00 0.180500000000000E+02 0.000000000000000E+00
Cu 0.180500000000000E+01 0.198550000000000E+02 0.000000000000000E+00
Cu 0.000000000000000E+00 0.198550000000000E+02 0.180500000000000E+01
Cu 0.180500000000000E+01 0.180500000000000E+02 0.180500000000000E+01
Cu 0.361000000000000E+01 0.180500000000000E+02 0.000000000000000E+00
Cu 0.541500000000000E+01 0.198550000000000E+02 0.000000000000000E+00
Cu 0.361000000000000E+01 0.198550000000000E+02 0.180500000000000E+01
Cu 0.541500000000000E+01 0.180500000000000E+02 0.180500000000000E+01
Cu 0.722000000000000E+01 0.180500000000000E+02 0.000000000000000E+00
Cu 0.902500000000000E+01 0.198550000000000E+02 0.000000000000000E+00
Cu 0.722000000000000E+01 0.198550000000000E+02 0.180500000000000E+01
Cu 0.902500000000000E+01 0.180500000000000E+02 0.180500000000000E+01
Cu 0.108300000000000E+02 0.180500000000000E+02 0.000000000000000E+00
Cu 0.126350000000000E+02 0.198550000000000E+02 0.000000000000000E+00
Cu 0.108300000000000E+02 0.198550000000000E+02 0.180500000000000E+01
Cu 0.126350000000000E+02 0.180500000000000E+02 0.180500000000000E+01
Cu 0.144400000000000E+02 0.180500000000000E+02 0.000000000000000E+00
Cu 0.162450000000000E+02 0.198550000000000E+02 0.000000000000000E+00
Cu 0.144400000000000E+02 0.198550000000000E+02 0.180500000000000E+01
Cu 0.162450000000000E+02 0.180500000000000E+02 0.180500000000000E+01
Cu 0.180500000000000E+02 0.180500000000000E+02 0.000000000000000E+00
Cu 0.198550000000000E+02 0.198550000000000E+02 0.000000000000000E+00
Cu 0.180500000000000E+02 0.198550000000000E+02 0.180500000000000E+01
Cu 0.198550000000000E+02 0.180500000000000E+02 0.180500000000000E+01
Cu 0.216600000000000E+02 0.180500000000000E+02 0.000000000000000E+00
Cu 0.234650000000000E+02 0.198550000000000E+02 0.000000000000000E+00
Cu 0.216600000000000E+02 0.198550000000000E+02 0.180500000000000E+01
Cu 0.234650000000000E+02 0.180500000000000E+02 0.180500000000000E+01
Cu 0.252700000000000E+02 0.180500000000000E+02 0.000000000000000E+00
Cu 0.270750000000000E+02 0.198550000000000E+02 0.000000000000000E+00
Cu 0.252700000000000E+02 0.198550000000000E+02 0.180500000000000E+01
Cu 0.270750000000000E+02 0.180500000000000E+02 0.180500000000000E+01
Cu 0.288800000000000E+02 0.180500000000000E+02 0.000000000000000E+00
Cu 0.306850000000000E+02 0.198550000000000E+02 0.000000000000000E+00
Cu 0.288800000000000E+02 0.198550000000000E+02 0.180500000000000E+01
Cu 0.306850000000000E+02 0.180500000000000E+02 0.180500000000000E+01
Cu 0.324900000000000E+02 0.180500000000000E+02 0.000000000000000E+00
Cu 0.342950000000000E+02 0.198550000000000E+02 0.000000000000000E+00
Cu 0.324900000000000E+02 0.198550000000000E+02 0.180500000000000E+01
Cu 0.342950000000000E+02 0.180500000000000E+02 0.180500000000000E+01
Cu 0.361000000000000E+02 0.180500000000000E+02 0.000000000000000E+00
Cu 0.379050000000000E+02 0.198550000000000E+02 0.000000000000000E+00
Cu 0.361000000000000E+02 0.198550000000000E+02 0.180500000000000E+01
Cu 0.379050000000000E+02 0.180500000000000E+02 0.180500000000000E+01
Cu 0.397100000000000E+02 0.180500000000000E+02 0.000000000000000E+00
Cu 0.415150000000000E+02 0.198550000000000E+02 0.000000000000000E+00
Cu 0.397100000000000E+02 0.198550000000000E+02 0.180500000000000E+01
Cu 0.415150000000000E+02 0.180500000000000E+02 0.180500000000000E+01
Cu 0.433200000000000E+02 0.180500000000000E+02 0.000000000000000E+00
Cu 0.451250000000000E+02 0.198550000000000E+02 0.000000000000000E+00
Cu 0.433200000000000E+02 0.198550000000000E+02 0.180500000000000E+01
Cu 0.451250000000000E+02 0.180500000000000E+02 0.180500000000000E+01
Cu 0.469300000000000E+02 0.180500000000000E+02 0.000000000000000E+00
Cu 0.487350000000000E+02 0.198550000000000E+02 0.000000000000000E+00
Cu 0.469300000000000E+02 0.198550000000000E+02 0.180500000000000E+01
Cu 0.487350000000000E+02 0.180500000000000E+02 0.180500000000000E+01
Cu 0.505400000000000E+02 0.180500000000000E+02 0.000000000000000E+00
Cu 0.523450000000000E+02 0.198550000000000E+02 0.000000000000000E+00
Cu 0.505400000000000E+02 0.198550000000000E+02 0.180500000000000E+01
Cu 0.523450000000000E+02 0.180500000000000E+02 0.180500000000000E+01
Cu 0.541500000000000E+02 0.180500000000000E+02 0.000000000000000E+00
Cu 0.559550000000000E+02 0.198550000000000E+02 0.000000000000000E+00
Cu 0.541500000000000E+02 0.198550000000000E+02 0.180500000000000E+01
Cu 0.559550000000000E+02 0.180500000000000E+02 0.180500000000000E+01
Cu 0.000000000000000E+00 0.216600000000000E+02 0.000000000000000E+00
Cu 0.180500000000000E+01 0.234650000000000E+02 0.000000000000000E+00
Cu 0.000000000000000E+00 0.234650000000000E+02 0.180500000000000E+01
Cu 0.180500000000000E+01 0.216600000000000E+02 0.180500000000000E+01
Cu 0.361000000000000E+01 0.216600000000000E+02 0.000000000000000E+00
Cu 0.541500000000000E+01 0.234650000000000E+02 0.000000000000000E+00
Cu 0.361000000000000E+01 0.234650000000000E+02 0.180500000000000E+01
Cu 0.541500000000000E+01 0.216600000000000E+02 0.180500000000000E+01
Cu 0.722000000000000E+01 0.216600000000000E+02 0.000000000000000E+00
Cu 0.902500000000000E+01 0.234650000000000E+02 0.000000000000000E+00
Cu 0.722000000000000E+01 0.234650000000000E+02 0.180500000000000E+01
Cu 0.902500000000000E+01 0.216600000000000E+02 0.180500000000000E+01
Cu 0.108300000000000E+02 0.216600000000000E+02 0.000000000000000E+00
Cu 0.126350000000000E+02 0.234650000000000E+02 0.000000000000000E+00
Cu 0.108300000000000E+02 0.234650000000000E+02 0.180500000000000E+01
Cu 0.126350000000000E+02 0.216600000000000E+02 0.180500000000000E+01
Cu 0.144400000000000E+02 0.216600000000000E+02 0.000000000000000E+00
Cu 0.162450000000000E+02 0.234650000000000E+02 0.000000000000000E+00
Cu 0.144400000000000E+02 0.234650000000000E+02 0.180500000000000E+01
Cu 0.162450000000000E+02 0.216600000000000E+02 0.180500000000000E+01
Cu 0.180500000000000E+02 0.216600000000000E+02 0.000000000000000E+00
Cu 0.198550000000000E+02 0.234650000000000E+02 0.000000000000000E+00
Cu 0.180500000000000E+02 0.234650000000000E+02 0.180500000000000E+01
Cu 0.198550000000000E+02 0.216600000000000E+02 0.180500000000000E+01
Cu 0.216600000000000E+02 0.216600000000000E+02 0.000000000000000E+00
Cu 0.234650000000000E+02 0.234650000000000E+02 0.000000000000000E+00
Cu 0.216600000000000E+02 0.234650000000000E+02 0.180500000000000E+01
Cu 0.234650000000000E+02 0.216600000000000E+02 0.180500000000000E+01
Cu 0.252700000000000E+02 0.216600000000000E+02 0.000000000000000E+00
Cu 0.270750000000000E+02 0.234650000000000E+02 0.000000000000000E+00
Cu 0.252700000000000E+02 0.234650000000000E+02 0.180500000000000E+01
Cu 0.270750000000000E+02 0.216600000000000E+02 0.180500000000000E+01
Cu 0.288800000000000E+02 0.216600000000000E+02 0.000000000000000E+00
Cu 0.306850000000000E+02 0.234650000000000E+02 0.000000000000000E+00
Cu 0.288800000000000E+02 0.234650000000000E+02 0.180500000000000E+01
Cu 0.306850000000000E+02 0.216600000000000E+02 0.180500000000000E+01
Cu 0.324900000000000E+02 0.216600000000000E+02 0.000000000000000E+00
Cu 0.342950000000000E+02 0.234650000000000E+02 0.000000000000000E+00
Cu 0.324900000000000E+02 0.234650000000000E+02 0.180500000000000E+01
Cu 0.342950000000000E+02 0.216600000000000E+02 0.180500000000000E+01
Cu 0.361000000000000E+02 0.216600000000000E+02 0.000000000000000E+00
Cu 0.379050000000000E+02 0.234650000000000E+02 0.000000000000000E+00
Cu 0.361000000000000E+02 0.234650000000000E+02 0.180500000000000E+01
Cu 0.379050000000000E+02 0.216600000000000E+02 0.180500000000000E+01
Cu 0.397100000000000E+02 0.216600000000000E+02 0.000000000000000E+00
Cu 0.415150000000000E+02 0.234650000000000E+02 0.000000000000000E+00
Cu 0.397100000000000E+02 0.234650000000000E+02 0.180500000000000E+01
Cu 0.415150000000000E+02 0.216600000000000E+02 0.180500000000000E+01
Cu 0.433200000000000E+02 0.216600000000000E+02 0.000000000000000E+00
Cu 0.451250000000000E+02 0.234650000000000E+02 0.000000000000000E+00