2576
timestep 0
Cu 0.0 0.0 0.0
Cu 0.0 -3.61 0.0
Cu 3.61 0.0 0.0
Cu 3.61 -3.61 0.0
Cu 1.805 -1.805 0.0
Cu 0.0 -7.22 0.0
Cu 3.61 -7.22 0.0
Cu 1.805 -5.415 0.0
Cu 0.0 -10.83 0.0
Cu 3.61 -10.83 0.0
Cu 1.805 -9.025 0.0
Cu 0.0 -14.44 0.0
Cu 3.61 -14.44 0.0
Cu 1.805 -12.635 0.0
Cu 0.0 -18.05 0.0
Cu 3.61 -18.05 0.0
Cu 1.805 -16.245 0.0
Cu 0.0 -21.66 0.0
Cu 3.61 -21.66 0.0
Cu 1.805 -19.855 0.0
Cu 0.0 -25.27 0.0
Cu 3.61 -25.27 0.0
Cu 1.805 -23.465 0.0
Cu 0.0 -28.88 0.0
Cu 3.61 -28.88 0.0
Cu 1.805 -27.075 0.0
Cu 0.0 -32.49 0.0
Cu 3.61 -32.49 0.0
Cu 1.805 -30.685000000000002 0.0
Cu 0.0 -36.1 0.0
Cu 3.61 -36.1 0.0
Cu 1.805 -34.295 0.0
Cu 0.0 -39.71 0.0
Cu 3.61 -39.71 0.0
Cu 1.805 -37.905 0.0
Cu 0.0 -43.32 0.0
Cu 3.61 -43.32 0.0
Cu 1.805 -41.515 0.0
Cu 0.0 -46.93 0.0
Cu 3.61 -46.93 0.0
Cu 1.805 -45.125 0.0
Cu 0.0 -50.54 0.0
Cu 3.61 -50.54 0.0
Cu 1.805 -48.735 0.0
Cu 0.0 -54.15 0.0
Cu 3.61 -54.15 0.0
Cu 1.805 -52.345 0.0
Cu 0.0 -57.76 0.0
Cu 3.61 -57.76 0.0
Cu 1.805 -55.955 0.0
Cu 0.0 -61.37 0.0
Cu 3.61 -61.37 0.0
Cu 1.805 -59.565 0.0
Cu 0.0 -64.98 0.0
Cu 3.61 -64.98 0.0
Cu 1.805 -63.175 0.0
Cu 0.0 -68.59 0.0
Cu 3.61 -68.59 0.0
Cu 1.805 -66.785 0.0
Cu 0.0 -72.2 0.0
Cu 3.61 -72.2 0.0
Cu 1.805 -70.39500000000001 0.0
Cu 0.0 -75.81 0.0
Cu 3.61 -75.81 0.0
Cu 1.805 -74.005 0.0
Cu 0.0 -79.42 0.0
Cu 3.61 -79.42 0.0
Cu 1.805 -77.61500000000001 0.0
Cu 0.0 -83.03 0.0
Cu 3.61 -83.03 0.0
Cu 1.805 -81.225 0.0
Cu 0.0 -86.64 0.0
Cu 3.61 -86.64 0.0
Cu 1.805 -84.83500000000001 0.0
Cu 0.0 -90.25 0.0
Cu 3.61 -90.25 0.0
Cu 1.805 -88.445 0.0
Cu 0.0 -93.86 0.0
Cu 3.61 -93.86 0.0
Cu 1.805 -92.055 0.0
Cu 0.0 -97.47 0.0
Cu 3.61 -97.47 0.0
Cu 1.805 -95.66499999999999 0.0
Cu 0.0 -101.08 0.0
Cu 3.61 -101.08 0.0
Cu 1.805 -99.275 0.0
Cu 0.0 -104.69 0.0
Cu 3.61 -104.69 0.0
Cu 1.805 -102.88499999999999 0.0
Cu 0.0 -108.3 0.0
Cu 3.61 -108.3 0.0
Cu 1.805 -106.495 0.0
Cu 7.22 0.0 0.0
Cu 7.22 -3.61 0.0
Cu 5.415 -1.805 0.0
Cu 7.22 -7.22 0.0
Cu 5.415 -5.415 0.0
Cu 7.22 -10.83 0.0
Cu 5.415 -9.025 0.0
Cu 7.22 -14.44 0.0
Cu 5.415 -12.635 0.0
Cu 7.22 -18.05 0.0
Cu 5.415 -16.245 0.0
Cu 7.22 -21.66 0.0
Cu 5.415 -19.855 0.0
Cu 7.22 -25.27 0.0
Cu 5.415 -23.465 0.0
Cu 7.22 -28.88 0.0
Cu 5.415 -27.075 0.0
Cu 7.22 -32.49 0.0
Cu 5.415 -30.685000000000002 0.0
Cu 7.22 -36.1 0.0
Cu 5.415 -34.295 0.0
Cu 7.22 -39.71 0.0
Cu 5.415 -37.905 0.0
Cu 7.22 -43.32 0.0
Cu 5.415 -41.515 0.0
Cu 7.22 -46.93 0.0
Cu 5.415 -45.125 0.0
Cu 7.22 -50.54 0.0
Cu 5.415 -48.735 0.0
Cu 7.22 -54.15 0.0
Cu 5.415 -52.345 0.0
Cu 7.22 -57.76 0.0
Cu 5.415 -55.955 0.0
Cu 7.22 -61.37 0.0
Cu 5.415 -59.565 0.0
Cu 7.22 -64.98 0.0
Cu 5.415 -63.175 0.0
Cu 7.22 -68.59 0.0
Cu 5.415 -66.785 0.0
Cu 7.22 -72.2 0.0
Cu 5.415 -70.39500000000001 0.0
Cu 7.22 -75.81 0.0
Cu 5.415 -74.005 0.0
Cu 7.22 -79.42 0.0
Cu 5.415 -77.61500000000001 0.0
Cu 7.22 -83.03 0.0
Cu 5.415 -81.225 0.0
Cu 7.22 -86.64 0.0
Cu 5.415 -84.83500000000001 0.0
Cu 7.22 -90.25 0.0
Cu 5.415 -88.445 0.0
Cu 7.22 -93.86 0.0
Cu 5.415 -92.055 0.0
Cu 7.22 -97.47 0.0
Cu 5.415 -95.66499999999999 0.0
Cu 7.22 -101.08 0.0
Cu 5.415 -99.275 0.0
Cu 7.22 -104.69 0.0
Cu 5.415 -102.88499999999999 0.0
Cu 7.22 -108.3 0.0
Cu 5.415 -106.495 0.0
Cu 10.83 0.0 0.0
Cu 10.83 -3.61 0.0
Cu 9.025 -1.805 0.0
Cu 10.83 -7.22 0.0
Cu 9.025 -5.415 0.0
Cu 10.83 -10.83 0.0
Cu 9.025 -9.025 0.0
Cu 10.83 -14.44 0.0
Cu 9.025 -12.635 0.0
Cu 10.83 -18.05 0.0
Cu 9.025 -16.245 0.0
Cu 10.83 -21.66 0.0
Cu 9.025 -19.855 0.0
Cu 10.83 -25.27 0.0
Cu 9.025 -23.465 0.0
Cu 10.83 -28.88 0.0
Cu 9.025 -27.075 0.0
Cu 10.83 -32.49 0.0
Cu 9.025 -30.685000000000002 0.0
Cu 10.83 -36.1 0.0
Cu 9.025 -34.295 0.0
Cu 10.83 -39.71 0.0
Cu 9.025 -37.905 0.0
Cu 10.83 -43.32 0.0
Cu 9.025 -41.515 0.0
Cu 10.83 -46.93 0.0
Cu 9.025 -45.125 0.0
Cu 10.83 -50.54 0.0
Cu 9.025 -48.735 0.0
Cu 10.83 -54.15 0.0
Cu 9.025 -52.345 0.0
Cu 10.83 -57.76 0.0
Cu 9.025 -55.955 0.0
Cu 10.83 -61.37 0.0
Cu 9.025 -59.565 0.0
Cu 10.83 -64.98 0.0
Cu 9.025 -63.175 0.0
Cu 10.83 -68.59 0.0
Cu 9.025 -66.785 0.0
Cu 10.83 -72.2 0.0
Cu 9.025 -70.39500000000001 0.0
Cu 10.83 -75.81 0.0
Cu 9.025 -74.005 0.0
Cu 10.83 -79.42 0.0
Cu 9.025 -77.61500000000001 0.0
Cu 10.83 -83.03 0.0
Cu 9.025 -81.225 0.0
Cu 10.83 -86.64 0.0
Cu 9.025 -84.83500000000001 0.0
Cu 10.83 -90.25 0.0
Cu 9.025 -88.445 0.0
Cu 10.83 -93.86 0.0
Cu 9.025 -92.055 0.0
Cu 10.83 -97.47 0.0
Cu 9.025 -95.66499999999999 0.0
Cu 10.83 -101.08 0.0
Cu 9.025 -99.275 0.0
Cu 10.83 -104.69 0.0
Cu 9.025 -102.88499999999999 0.0
Cu 10.83 -108.3 0.0
Cu 9.025 -106.495 0.0
Cu 14.44 0.0 0.0
Cu 14.44 -3.61 0.0
Cu 12.635 -1.805 0.0
Cu 14.44 -7.22 0.0
Cu 12.635 -5.415 0.0
Cu 14.44 -10.83 0.0
Cu 12.635 -9.025 0.0
Cu 14.44 -14.44 0.0
Cu 12.635 -12.635 0.0
Cu 14.44 -18.05 0.0
Cu 12.635 -16.245 0.0
Cu 14.44 -21.66 0.0
Cu 12.635 -19.855 0.0
Cu 14.44 -25.27 0.0
Cu 12.635 -23.465 0.0
Cu 14.44 -28.88 0.0
Cu 12.635 -27.075 0.0
Cu 14.44 -32.49 0.0
Cu 12.635 -30.685000000000002 0.0
Cu 14.44 -36.1 0.0
Cu 12.635 -34.295 0.0
Cu 14.44 -39.71 0.0
Cu 12.635 -37.905 0.0
Cu 14.44 -43.32 0.0
Cu 12.635 -41.515 0.0
Cu 14.44 -46.93 0.0
Cu 12.635 -45.125 0.0
Cu 14.44 -50.54 0.0
Cu 12.635 -48.735 0.0
Cu 14.44 -54.15 0.0
Cu 12.635 -52.345 0.0
Cu 14.44 -57.76 0.0
Cu 12.635 -55.955 0.0
Cu 14.44 -61.37 0.0
Cu 12.635 -59.565 0.0
Cu 14.44 -64.98 0.0
Cu 12.635 -63.175 0.0
Cu 14.44 -68.59 0.0
Cu 12.635 -66.785 0.0
Cu 14.44 -72.2 0.0
Cu 12.635 -70.39500000000001 0.0
Cu 14.44 -75.81 0.0
Cu 12.635 -74.005 0.0
Cu 14.44 -79.42 0.0
Cu 12.635 -77.61500000000001 0.0
Cu 14.44 -83.03 0.0
Cu 12.635 -81.225 0.0
Cu 14.44 -86.64 0.0
Cu 12.635 -84.83500000000001 0.0
Cu 14.44 -90.25 0.0
Cu 12.635 -88.445 0.0
Cu 14.44 -93.86 0.0
Cu 12.635 -92.055 0.0
Cu 14.44 -97.47 0.0
Cu 12.635 -95.66499999999999 0.0
Cu 14.44 -101.08 0.0
Cu 12.635 -99.275 0.0
Cu 14.44 -104.69 0.0
Cu 12.635 -102.88499999999999 0.0
Cu 14.44 -108.3 0.0
Cu 12.635 -106.495 0.0
Cu 18.05 0.0 0.0
Cu 18.05 -3.61 0.0
Cu 16.245 -1.805 0.0
Cu 18.05 -7.22 0.0
Cu 16.245 -5.415 0.0
Cu 18.05 -10.83 0.0
Cu 16.245 -9.025 0.0
Cu 18.05 -14.44 0.0
Cu 16.245 -12.635 0.0
Cu 18.05 -18.05 0.0
Cu 16.245 -16.245 0.0
Cu 18.05 -21.66 0.0
Cu 16.245 -19.855 0.0
Cu 18.05 -25.27 0.0
Cu 16.245 -23.465 0.0
Cu 18.05 -28.88 0.0
Cu 16.245 -27.075 0.0
Cu 18.05 -32.49 0.0
Cu 16.245 -30.685000000000002 0.0
Cu 18.05 -36.1 0.0
Cu 16.245 -34.295 0.0
Cu 18.05 -39.71 0.0
Cu 16.245 -37.905 0.0
Cu 18.05 -43.32 0.0
Cu 16.245 -41.515 0.0
Cu 18.05 -46.93 0.0
Cu 16.245 -45.125 0.0
Cu 18.05 -50.54 0.0
Cu 16.245 -48.735 0.0
Cu 18.05 -54.15 0.0
Cu 16.245 -52.345 0.0
Cu 18.05 -57.76 0.0
Cu 16.245 -55.955 0.0
Cu 18.05 -61.37 0.0
Cu 16.245 -59.565 0.0
Cu 18.05 -64.98 0.0
Cu 16.245 -63.175 0.0
Cu 18.05 -68.59 0.0
Cu 16.245 -66.785 0.0
Cu 18.05 -72.2 0.0
Cu 16.245 -70.39500000000001 0.0
Cu 18.05 -75.81 0.0
Cu 16.245 -74.005 0.0
Cu 18.05 -79.42 0.0
Cu 16.245 -77.61500000000001 0.0
Cu 18.05 -83.03 0.0
Cu 16.245 -81.225 0.0
Cu 18.05 -86.64 0.0
Cu 16.245 -84.83500000000001 0.0
Cu 18.05 -90.25 0.0
Cu 16.245 -88.445 0.0
Cu 18.05 -93.86 0.0
Cu 16.245 -92.055 0.0
Cu 18.05 -97.47 0.0
Cu 16.245 -95.66499999999999 0.0
Cu 18.05 -101.08 0.0
Cu 16.245 -99.275 0.0
Cu 18.05 -104.69 0.0
Cu 16.245 -102.88499999999999 0.0
Cu 18.05 -108.3 0.0
Cu 16.245 -106.495 0.0
Cu 21.66 0.0 0.0
Cu 21.66 -3.61 0.0
Cu 19.855 -1.805 0.0
Cu 21.66 -7.22 0.0
Cu 19.855 -5.415 0.0
Cu 21.66 -10.83 0.0
Cu 19.855 -9.025 0.0
Cu 21.66 -14.44 0.0
Cu 19.855 -12.635 0.0
Cu 21.66 -18.05 0.0
Cu 19.855 -16.245 0.0
Cu 21.66 -21.66 0.0
Cu 19.855 -19.855 0.0
Cu 21.66 -25.27 0.0
Cu 19.855 -23.465 0.0
Cu 21.66 -28.88 0.0
Cu 19.855 -27.075 0.0
Cu 21.66 -32.49 0.0
Cu 19.855 -30.685000000000002 0.0
Cu 21.66 -36.1 0.0
Cu 19.855 -34.295 0.0
Cu 21.66 -39.71 0.0
Cu 19.855 -37.905 0.0
Cu 21.66 -43.32 0.0
Cu 19.855 -41.515 0.0
Cu 21.66 -46.93 0.0
Cu 19.855 -45.125 0.0
Cu 21.66 -50.54 0.0
Cu 19.855 -48.735 0.0
Cu 21.66 -54.15 0.0
Cu 19.855 -52.345 0.0
Cu 21.66 -57.76 0.0
Cu 19.855 -55.955 0.0
Cu 21.66 -61.37 0.0
Cu 19.855 -59.565 0.0
Cu 21.66 -64.98 0.0
Cu 19.855 -63.175 0.0
Cu 21.66 -68.59 0.0
Cu 19.855 -66.785 0.0
Cu 21.66 -72.2 0.0
Cu 19.855 -70.39500000000001 0.0
Cu 21.66 -75.81 0.0
Cu 19.855 -74.005 0.0
Cu 21.66 -79.42 0.0
Cu 19.855 -77.61500000000001 0.0
Cu 21.66 -83.03 0.0
Cu 19.855 -81.225 0.0
Cu 21.66 -86.64 0.0
Cu 19.855 -84.83500000000001 0.0
Cu 21.66 -90.25 0.0
Cu 19.855 -88.445 0.0
Cu 21.66 -93.86 0.0
Cu 19.855 -92.055 0.0
Cu 21.66 -97.47 0.0
Cu 19.855 -95.66499999999999 0.0
Cu 21.66 -101.08 0.0
Cu 19.855 -99.275 0.0
Cu 21.66 -104.69 0.0
Cu 19.855 -102.88499999999999 0.0
Cu 21.66 -108.3 0.0
Cu 19.855 -106.495 0.0
Cu 25.27 0.0 0.0
Cu 25.27 -3.61 0.0
Cu 23.465 -1.805 0.0
Cu 25.27 -7.22 0.0
Cu 23.465 -5.415 0.0
Cu 25.27 -10.83 0.0
Cu 23.465 -9.025 0.0
Cu 25.27 -14.44 0.0
Cu 23.465 -12.635 0.0
Cu 25.27 -18.05 0.0
Cu 23.465 -16.245 0.0
Cu 25.27 -21.66 0.0
Cu 23.465 -19.855 0.0
Cu 25.27 -25.27 0.0
Cu 23.465 -23.465 0.0
Cu 25.27 -28.88 0.0
Cu 23.465 -27.075 0.0
Cu 25.27 -32.49 0.0
Cu 23.465 -30.685000000000002 0.0
Cu 25.27 -36.1 0.0
Cu 23.465 -34.295 0.0
Cu 25.27 -39.71 0.0
Cu 23.465 -37.905 0.0
Cu 25.27 -43.32 0.0
Cu 23.465 -41.515 0.0
Cu 25.27 -46.93 0.0
Cu 23.465 -45.125 0.0
Cu 25.27 -50.54 0.0
Cu 23.465 -48.735 0.0
Cu 25.27 -54.15 0.0
Cu 23.465 -52.345 0.0
Cu 25.27 -57.76 0.0
Cu 23.465 -55.955 0.0
Cu 25.27 -61.37 0.0
Cu 23.465 -59.565 0.0
Cu 25.27 -64.98 0.0
Cu 23.465 -63.175 0.0
Cu 25.27 -68.59 0.0
Cu 23.465 -66.785 0.0
Cu 25.27 -72.2 0.0
Cu 23.465 -70.39500000000001 0.0
Cu 25.27 -75.81 0.0
Cu 23.465 -74.005 0.0
Cu 25.27 -79.42 0.0
Cu 23.465 -77.61500000000001 0.0
Cu 25.27 -83.03 0.0
Cu 23.465 -81.225 0.0
Cu 25.27 -86.64 0.0
Cu 23.465 -84.83500000000001 0.0
Cu 25.27 -90.25 0.0
Cu 23.465 -88.445 0.0
Cu 25.27 -93.86 0.0
Cu 23.465 -92.055 0.0
Cu 25.27 -97.47 0.0
Cu 23.465 -95.66499999999999 0.0
Cu 25.27 -101.08 0.0
Cu 23.465 -99.275 0.0
Cu 25.27 -104.69 0.0
Cu 23.465 -102.88499999999999 0.0
Cu 25.27 -108.3 0.0
Cu 23.465 -106.495 0.0
Cu 28.88 0.0 0.0
Cu 28.88 -3.61 0.0
Cu 27.075 -1.805 0.0
Cu 28.88 -7.22 0.0
Cu 27.075 -5.415 0.0
Cu 28.88 -10.83 0.0
Cu 27.075 -9.025 0.0
Cu 28.88 -14.44 0.0
Cu 27.075 -12.635 0.0
Cu 28.88 -18.05 0.0
Cu 27.075 -16.245 0.0
Cu 28.88 -21.66 0.0
Cu 27.075 -19.855 0.0
Cu 28.88 -25.27 0.0
Cu 27.075 -23.465 0.0
Cu 28.88 -28.88 0.0
Cu 27.075 -27.075 0.0
Cu 28.88 -32.49 0.0
Cu 27.075 -30.685000000000002 0.0
Cu 28.88 -36.1 0.0
Cu 27.075 -34.295 0.0
Cu 28.88 -39.71 0.0
Cu 27.075 -37.905 0.0
Cu 28.88 -43.32 0.0
Cu 27.075 -41.515 0.0
Cu 28.88 -46.93 0.0
Cu 27.075 -45.125 0.0
Cu 28.88 -50.54 0.0
Cu 27.075 -48.735 0.0
Cu 28.88 -54.15 0.0
Cu 27.075 -52.345 0.0
Cu 28.88 -57.76 0.0
Cu 27.075 -55.955 0.0
Cu 28.88 -61.37 0.0
Cu 27.075 -59.565 0.0
Cu 28.88 -64.98 0.0
Cu 27.075 -63.175 0.0
Cu 28.88 -68.59 0.0
Cu 27.075 -66.785 0.0
Cu 28.88 -72.2 0.0
Cu 27.075 -70.39500000000001 0.0
Cu 28.88 -75.81 0.0
Cu 27.075 -74.005 0.0
Cu 28.88 -79.42 0.0
Cu 27.075 -77.61500000000001 0.0
Cu 28.88 -83.03 0.0
Cu 27.075 -81.225 0.0
Cu 28.88 -86.64 0.0
Cu 27.075 -84.83500000000001 0.0
Cu 28.88 -90.25 0.0
Cu 27.075 -88.445 0.0
Cu 28.88 -93.86 0.0
Cu 27.075 -92.055 0.0
Cu 28.88 -97.47 0.0
Cu 27.075 -95.66499999999999 0.0
Cu 28.88 -101.08 0.0
Cu 27.075 -99.275 0.0
Cu 28.88 -104.69 0.0
Cu 27.075 -102.88499999999999 0.0
Cu 28.88 -108.3 0.0
Cu 27.075 -106.495 0.0
Cu 32.49 0.0 0.0
Cu 32.49 -3.61 0.0
Cu 30.685000000000002 -1.805 0.0
Cu 32.49 -7.22 0.0
Cu 30.685000000000002 -5.415 0.0
Cu 32.49 -10.83 0.0
Cu 30.685000000000002 -9.025 0.0
Cu 32.49 -14.44 0.0
Cu 30.685000000000002 -12.635 0.0
Cu 32.49 -18.05 0.0
Cu 30.685000000000002 -16.245 0.0
Cu 32.49 -21.66 0.0
Cu 30.685000000000002 -19.855 0.0
Cu 32.49 -25.27 0.0
Cu 30.685000000000002 -23.465 0.0
Cu 32.49 -28.88 0.0
Cu 30.685000000000002 -27.075 0.0
Cu 32.49 -32.49 0.0
Cu 30.685000000000002 -30.685000000000002 0.0
Cu 32.49 -36.1 0.0
Cu 30.685000000000002 -34.295 0.0
Cu 32.49 -39.71 0.0
Cu 30.685000000000002 -37.905 0.0
Cu 32.49 -43.32 0.0
Cu 30.685000000000002 -41.515 0.0
Cu 32.49 -46.93 0.0
Cu 30.685000000000002 -45.125 0.0
Cu 32.49 -50.54 0.0
Cu 30.685000000000002 -48.735 0.0
Cu 32.49 -54.15 0.0
Cu 30.685000000000002 -52.345 0.0
Cu 32.49 -57.76 0.0
Cu 30.685000000000002 -55.955 0.0
Cu 32.49 -61.37 0.0
Cu 30.685000000000002 -59.565 0.0
Cu 32.49 -64.98 0.0
Cu 30.685000000000002 -63.175 0.0
Cu 32.49 -68.59 0.0
Cu 30.685000000000002 -66.785 0.0
Cu 32.49 -72.2 0.0
Cu 30.685000000000002 -70.39500000000001 0.0
Cu 32.49 -75.81 0.0
Cu 30.685000000000002 -74.005 0.0
Cu 32.49 -79.42 0.0
Cu 30.685000000000002 -77.61500000000001 0.0
Cu 32.49 -83.03 0.0
Cu 30.685000000000002 -81.225 0.0
Cu 32.49 -86.64 0.0
Cu 30.685000000000002 -84.83500000000001 0.0
Cu 32.49 -90.25 0.0
Cu 30.685000000000002 -88.445 0.0
Cu 32.49 -93.86 0.0
Cu 30.685000000000002 -92.055 0.0
Cu 32.49 -97.47 0.0
Cu 30.685000000000002 -95.66499999999999 0.0
Cu 32.49 -101.08 0.0
Cu 30.685000000000002 -99.275 0.0
Cu 32.49 -104.69 0.0
Cu 30.685000000000002 -102.88499999999999 0.0
Cu 32.49 -108.3 0.0
Cu 30.685000000000002 -106.495 0.0
Cu 36.1 0.0 0.0
Cu 36.1 -3.61 0.0
Cu 34.295 -1.805 0.0
Cu 36.1 -7.22 0.0
Cu 34.295 -5.415 0.0
Cu 36.1 -10.83 0.0
Cu 34.295 -9.025 0.0
Cu 36.1 -14.44 0.0
Cu 34.295 -12.635 0.0
Cu 36.1 -18.05 0.0
Cu 34.295 -16.245 0.0
Cu 36.1 -21.66 0.0
Cu 34.295 -19.855 0.0
Cu 36.1 -25.27 0.0
Cu 34.295 -23.465 0.0
Cu 36.1 -28.88 0.0
Cu 34.295 -27.075 0.0
Cu 36.1 -32.49 0.0
Cu 34.295 -30.685000000000002 0.0
Cu 36.1 -36.1 0.0
Cu 34.295 -34.295 0.0
Cu 36.1 -39.71 0.0
Cu 34.295 -37.905 0.0
Cu 36.1 -43.32 0.0
Cu 34.295 -41.515 0.0
Cu 36.1 -46.93 0.0
Cu 34.295 -45.125 0.0
Cu 36.1 -50.54 0.0
Cu 34.295 -48.735 0.0
Cu 36.1 -54.15 0.0
Cu 34.295 -52.345 0.0
Cu 36.1 -57.76 0.0
Cu 34.295 -55.955 0.0
Cu 36.1 -61.37 0.0
Cu 34.295 -59.565 0.0
Cu 36.1 -64.98 0.0
Cu 34.295 -63.175 0.0
Cu 36.1 -68.59 0.0
Cu 34.295 -66.785 0.0
Cu 36.1 -72.2 0.0
Cu 34.295 -70.39500000000001 0.0
Cu 36.1 -75.81 0.0
Cu 34.295 -74.005 0.0
Cu 36.1 -79.42 0.0
Cu 34.295 -77.61500000000001 0.0
Cu 36.1 -83.03 0.0
Cu 34.295 -81.225 0.0
Cu 36.1 -86.64 0.0
Cu 34.295 -84.83500000000001 0.0
Cu 36.1 -90.25 0.0
Cu 34.295 -88.445 0.0
Cu 36.1 -93.86 0.0
Cu 34.295 -92.055 0.0
Cu 36.1 -97.47 0.0
Cu 34.295 -95.66499999999999 0.0
Cu 36.1 -101.08 0.0
Cu 34.295 -99.275 0.0
Cu 36.1 -104.69 0.0
Cu 34.295 -102.88499999999999 0.0
Cu 36.1 -108.3 0.0
Cu 34.295 -106.495 0.0
Cu 39.71 0.0 0.0
Cu 39.71 -3.61 0.0
Cu 37.905 -1.805 0.0
Cu 39.71 -7.22 0.0
Cu 37.905 -5.415 0.0
Cu 39.71 -10.83 0.0
Cu 37.905 -9.025 0.0
Cu 39.71 -14.44 0.0
Cu 37.905 -12.635 0.0
Cu 39.71 -18.05 0.0
Cu 37.905 -16.245 0.0
Cu 39.71 -21.66 0.0
Cu 37.905 -19.855 0.0
Cu 39.71 -25.27 0.0
Cu 37.905 -23.465 0.0
Cu 39.71 -28.88 0.0
Cu 37.905 -27.075 0.0
Cu 39.71 -32.49 0.0
Cu 37.905 -30.685000000000002 0.0
Cu 39.71 -36.1 0.0
Cu 37.905 -34.295 0.0
Cu 39.71 -39.71 0.0
Cu 37.905 -37.905 0.0
Cu 39.71 -43.32 0.0
Cu 37.905 -41.515 0.0
Cu 39.71 -46.93 0.0
Cu 37.905 -45.125 0.0
Cu 39.71 -50.54 0.0
Cu 37.905 -48.735 0.0
Cu 39.71 -54.15 0.0
Cu 37.905 -52.345 0.0
Cu 39.71 -57.76 0.0
Cu 37.905 -55.955 0.0
Cu 39.71 -61.37 0.0
Cu 37.905 -59.565 0.0
Cu 39.71 -64.98 0.0
Cu 37.905 -63.175 0.0
Cu 39.71 -68.59 0.0
Cu 37.905 -66.785 0.0
Cu 39.71 -72.2 0.0
Cu 37.905 -70.39500000000001 0.0
Cu 39.71 -75.81 0.0
Cu 37.905 -74.005 0.0
Cu 39.71 -79.42 0.0
Cu 37.905 -77.61500000000001 0.0
Cu 39.71 -83.03 0.0
Cu 37.905 -81.225 0.0
Cu 39.71 -86.64 0.0
Cu 37.905 -84.83500000000001 0.0
Cu 39.71 -90.25 0.0
Cu 37.905 -88.445 0.0
Cu 39.71 -93.86 0.0
Cu 37.905 -92.055 0.0
Cu 39.71 -97.47 0.0
Cu 37.905 -95.66499999999999 0.0
Cu 39.71 -101.08 0.0
Cu 37.905 -99.275 0.0
Cu 39.71 -104.69 0.0
Cu 37.905 -102.88499999999999 0.0
Cu 39.71 -108.3 0.0
Cu 37.905 -106.495 0.0
Cu 43.32 0.0 0.0
Cu 43.32 -3.61 0.0
Cu 41.515 -1.805 0.0
Cu 43.32 -7.22 0.0
Cu 41.515 -5.415 0.0
Cu 43.32 -10.83 0.0
Cu 41.515 -9.025 0.0
Cu 43.32 -14.44 0.0
Cu 41.515 -12.635 0.0
Cu 43.32 -18.05 0.0
Cu 41.515 -16.245 0.0
Cu 43.32 -21.66 0.0
Cu 41.515 -19.855 0.0
Cu 43.32 -25.27 0.0
Cu 41.515 -23.465 0.0
Cu 43.32 -28.88 0.0
Cu 41.515 -27.075 0.0
Cu 43.32 -32.49 0.0
Cu 41.515 -30.685000000000002 0.0
Cu 43.32 -36.1 0.0
Cu 41.515 -34.295 0.0
Cu 43.32 -39.71 0.0
Cu 41.515 -37.905 0.0
Cu 43.32 -43.32 0.0
Cu 41.515 -41.515 0.0
Cu 43.32 -46.93 0.0
Cu 41.515 -45.125 0.0
Cu 43.32 -50.54 0.0
Cu 41.515 -48.735 0.0
Cu 43.32 -54.15 0.0
Cu 41.515 -52.345 0.0
Cu 43.32 -57.76 0.0
Cu 41.515 -55.955 0.0
Cu 43.32 -61.37 0.0
Cu 41.515 -59.565 0.0
Cu 43.32 -64.98 0.0
Cu 41.515 -63.175 0.0
Cu 43.32 -68.59 0.0
Cu 41.515 -66.785 0.0
Cu 43.32 -72.2 0.0
Cu 41.515 -70.39500000000001 0.0
Cu 43.32 -75.81 0.0
Cu 41.515 -74.005 0.0
Cu 43.32 -79.42 0.0
Cu 41.515 -77.61500000000001 0.0
Cu 43.32 -83.03 0.0
Cu 41.515 -81.225 0.0
Cu 43.32 -86.64 0.0
Cu 41.515 -84.83500000000001 0.0
Cu 43.32 -90.25 0.0
Cu 41.515 -88.445 0.0
Cu 43.32 -93.86 0.0
Cu 41.515 -92.055 0.0
Cu 43.32 -97.47 0.0
Cu 41.515 -95.66499999999999 0.0
Cu 43.32 -101.08 0.0
Cu 41.515 -99.275 0.0
Cu 43.32 -104.69 0.0
Cu 41.515 -102.88499999999999 0.0
Cu 43.32 -108.3 0.0
Cu 41.515 -106.495 0.0
Cu 46.93 0.0 0.0
Cu 46.93 -3.61 0.0
Cu 45.125 -1.805 0.0
Cu 46.93 -7.22 0.0
Cu 45.125 -5.415 0.0
Cu 46.93 -10.83 0.0
Cu 45.125 -9.025 0.0
Cu 46.93 -14.44 0.0
Cu 45.125 -12.635 0.0
Cu 46.93 -18.05 0.0
Cu 45.125 -16.245 0.0
Cu 46.93 -21.66 0.0
Cu 45.125 -19.855 0.0
Cu 46.93 -25.27 0.0
Cu 45.125 -23.465 0.0
Cu 46.93 -28.88 0.0
Cu 45.125 -27.075 0.0
Cu 46.93 -32.49 0.0
Cu 45.125 -30.685000000000002 0.0
Cu 46.93 -36.1 0.0
Cu 45.125 -34.295 0.0
Cu 46.93 -39.71 0.0
Cu 45.125 -37.905 0.0
Cu 46.93 -43.32 0.0
Cu 45.125 -41.515 0.0
Cu 46.93 -46.93 0.0
Cu 45.125 -45.125 0.0
Cu 46.93 -50.54 0.0
Cu 45.125 -48.735 0.0
Cu 46.93 -54.15 0.0
Cu 45.125 -52.345 0.0
Cu 46.93 -57.76 0.0
Cu 45.125 -55.955 0.0
Cu 46.93 -61.37 0.0
Cu 45.125 -59.565 0.0
Cu 46.93 -64.98 0.0
Cu 45.125 -63.175 0.0
Cu 46.93 -68.59 0.0
Cu 45.125 -66.785 0.0
Cu 46.93 -72.2 0.0
Cu 45.125 -70.39500000000001 0.0
Cu 46.93 -75.81 0.0
Cu 45.125 -74.005 0.0
Cu 46.93 -79.42 0.0
Cu 45.125 -77.61500000000001 0.0
Cu 46.93 -83.03 0.0
Cu 45.125 -81.225 0.0
Cu 46.93 -86.64 0.0
Cu 45.125 -84.83500000000001 0.0
Cu 46.93 -90.25 0.0
Cu 45.125 -88.445 0.0
Cu 46.93 -93.86 0.0
Cu 45.125 -92.055 0.0
Cu 46.93 -97.47 0.0
Cu 45.125 -95.66499999999999 0.0
Cu 46.93 -101.08 0.0
Cu 45.125 -99.275 0.0
Cu 46.93 -104.69 0.0
Cu 45.125 -102.88499999999999 0.0
Cu 46.93 -108.3 0.0
Cu 45.125 -106.495 0.0
Cu 50.54 0.0 0.0
Cu 50.54 -3.61 0.0
Cu 48.735 -1.805 0.0
Cu 50.54 -7.22 0.0
Cu 48.735 -5.415 0.0
Cu 50.54 -10.83 0.0
Cu 48.735 -9.025 0.0
Cu 50.54 -14.44 0.0
Cu 48.735 -12.635 0.0
Cu 50.54 -18.05 0.0
Cu 48.735 -16.245 0.0
Cu 50.54 -21.66 0.0
Cu 48.735 -19.855 0.0
Cu 50.54 -25.27 0.0
Cu 48.735 -23.465 0.0
Cu 50.54 -28.88 0.0
Cu 48.735 -27.075 0.0
Cu 50.54 -32.49 0.0
Cu 48.735 -30.685000000000002 0.0
Cu 50.54 -36.1 0.0
Cu 48.735 -34.295 0.0
Cu 50.54 -39.71 0.0
Cu 48.735 -37.905 0.0
Cu 50.54 -43.32 0.0
Cu 48.735 -41.515 0.0
Cu 50.54 -46.93 0.0
Cu 48.735 -45.125 0.0
Cu 50.54 -50.54 0.0
Cu 48.735 -48.735 0.0
Cu 50.54 -54.15 0.0
Cu 48.735 -52.345 0.0
Cu 50.54 -57.76 0.0
Cu 48.735 -55.955 0.0
Cu 50.54 -61.37 0.0
Cu 48.735 -59.565 0.0
Cu 50.54 -64.98 0.0
Cu 48.735 -63.175 0.0
Cu 50.54 -68.59 0.0
Cu 48.735 -66.785 0.0
Cu 50.54 -72.2 0.0
Cu 48.735 -70.39500000000001 0.0
Cu 50.54 -75.81 0.0
Cu 48.735 -74.005 0.0
Cu 50.54 -79.42 0.0
Cu 48.735 -77.61500000000001 0.0
Cu 50.54 -83.03 0.0
Cu 48.735 -81.225 0.0
Cu 50.54 -86.64 0.0
Cu 48.735 -84.83500000000001 0.0
Cu 50.54 -90.25 0.0
Cu 48.735 -88.445 0.0
Cu 50.54 -93.86 0.0
Cu 48.735 -92.055 0.0
Cu 50.54 -97.47 0.0
Cu 48.735 -95.66499999999999 0.0
Cu 50.54 -101.08 0.0
Cu 48.735 -99.275 0.0
Cu 50.54 -104.69 0.0
Cu 48.735 -102.88499999999999 0.0
Cu 50.54 -108.3 0.0
Cu 48.735 -106.495 0.0
Cu 54.15 0.0 0.0
Cu 54.15 -3.61 0.0
Cu 52.345 -1.805 0.0
Cu 54.15 -7.22 0.0
Cu 52.345 -5.415 0.0
Cu 54.15 -10.83 0.0
Cu 52.345 -9.025 0.0
Cu 54.15 -14.44 0.0
Cu 52.345 -12.635 0.0
Cu 54.15 -18.05 0.0
Cu 52.345 -16.245 0.0
Cu 54.15 -21.66 0.0
Cu 52.345 -19.855 0.0
Cu 54.15 -25.27 0.0
Cu 52.345 -23.465 0.0
Cu 54.15 -28.88 0.0
Cu 52.345 -27.075 0.0
Cu 54.15 -32.49 0.0
Cu 52.345 -30.685000000000002 0.0
Cu 54.15 -36.1 0.0
Cu 52.345 -34.295 0.0
Cu 54.15 -39.71 0.0
Cu 52.345 -37.905 0.0
Cu 54.15 -43.32 0.0
Cu 52.345 -41.515 0.0
Cu 54.15 -46.93 0.0
Cu 52.345 -45.125 0.0
Cu 54.15 -50.54 0.0
Cu 52.345 -48.735 0.0
Cu 54.15 -54.15 0.0
Cu 52.345 -52.345 0.0
Cu 54.15 -57.76 0.0
Cu 52.345 -55.955 0.0
Cu 54.15 -61.37 0.0
Cu 52.345 -59.565 0.0
Cu 54.15 -64.98 0.0
Cu 52.345 -63.175 0.0
Cu 54.15 -68.59 0.0
Cu 52.345 -66.785 0.0
Cu 54.15 -72.2 0.0
Cu 52.345 -70.39500000000001 0.0
Cu 54.15 -75.81 0.0
Cu 52.345 -74.005 0.0
Cu 54.15 -79.42 0.0
Cu 52.345 -77.61500000000001 0.0
Cu 54.15 -83.03 0.0
Cu 52.345 -81.225 0.0
Cu 54.15 -86.64 0.0
Cu 52.345 -84.83500000000001 0.0
Cu 54.15 -90.25 0.0
Cu 52.345 -88.445 0.0
Cu 54.15 -93.86 0.0
Cu 52.345 -92.055 0.0
Cu 54.15 -97.47 0.0
Cu 52.345 -95.66499999999999 0.0
Cu 54.15 -101.08 0.0
Cu 52.345 -99.275 0.0
Cu 54.15 -104.69 0.0
Cu 52.345 -102.88499999999999 0.0
Cu 54.15 -108.3 0.0
Cu 52.345 -106.495 0.0
Cu 57.76 0.0 0.0
Cu 57.76 -3.61 0.0
Cu 55.955 -1.805 0.0
Cu 57.76 -7.22 0.0
Cu 55.955 -5.415 0.0
Cu 57.76 -10.83 0.0
Cu 55.955 -9.025 0.0
Cu 57.76 -14.44 0.0
Cu 55.955 -12.635 0.0
Cu 57.76 -18.05 0.0
Cu 55.955 -16.245 0.0
Cu 57.76 -21.66 0.0
Cu 55.955 -19.855 0.0
Cu 57.76 -25.27 0.0
Cu 55.955 -23.465 0.0
Cu 57.76 -28.88 0.0
Cu 55.955 -27.075 0.0
Cu 57.76 -32.49 0.0
Cu 55.955 -30.685000000000002 0.0
Cu 57.76 -36.1 0.0
Cu 55.955 -34.295 0.0
Cu 57.76 -39.71 0.0
Cu 55.955 -37.905 0.0
Cu 57.76 -43.32 0.0
Cu 55.955 -41.515 0.0
Cu 57.76 -46.93 0.0
Cu 55.955 -45.125 0.0
Cu 57.76 -50.54 0.0
Cu 55.955 -48.735 0.0
Cu 57.76 -54.15 0.0
Cu 55.955 -52.345 0.0
Cu 57.76 -57.76 0.0
Cu 55.955 -55.955 0.0
Cu 57.76 -61.37 0.0
Cu 55.955 -59.565 0.0
Cu 57.76 -64.98 0.0
Cu 55.955 -63.175 0.0
Cu 57.76 -68.59 0.0
Cu 55.955 -66.785 0.0
Cu 57.76 -72.2 0.0
Cu 55.955 -70.39500000000001 0.0
Cu 57.76 -75.81 0.0
Cu 55.955 -74.005 0.0
Cu 57.76 -79.42 0.0
Cu 55.955 -77.61500000000001 0.0
Cu 57.76 -83.03 0.0
Cu 55.955 -81.225 0.0
Cu 57.76 -86.64 0.0
Cu 55.955 -84.83500000000001 0.0
Cu 57.76 -90.25 0.0
Cu 55.955 -88.445 0.0
Cu 57.76 -93.86 0.0
Cu 55.955 -92.055 0.0
Cu 57.76 -97.47 0.0
Cu 55.955 -95.66499999999999 0.0
Cu 57.76 -101.08 0.0
Cu 55.955 -99.275 0.0
Cu 57.76 -104.69 0.0
Cu 55.955 -102.88499999999999 0.0
Cu 57.76 -108.3 0.0
Cu 55.955 -106.495 0.0
Cu 61.37 0.0 0.0
Cu 61.37 -3.61 0.0
Cu 59.565 -1.805 0.0
Cu 61.37 -7.22 0.0
Cu 59.565 -5.415 0.0
Cu 61.37 -10.83 0.0
Cu 59.565 -9.025 0.0
Cu 61.37 -14.44 0.0
Cu 59.565 -12.635 0.0
Cu 61.37 -18.05 0.0
Cu 59.565 -16.245 0.0
Cu 61.37 -21.66 0.0
Cu 59.565 -19.855 0.0
Cu 61.37 -25.27 0.0
Cu 59.565 -23.465 0.0
Cu 61.37 -28.88 0.0
Cu 59.565 -27.075 0.0
Cu 61.37 -32.49 0.0
Cu 59.565 -30.685000000000002 0.0
Cu 61.37 -36.1 0.0
Cu 59.565 -34.295 0.0
Cu 61.37 -39.71 0.0
Cu 59.565 -37.905 0.0
Cu 61.37 -43.32 0.0
Cu 59.565 -41.515 0.0
Cu 61.37 -46.93 0.0
Cu 59.565 -45.125 0.0
Cu 61.37 -50.54 0.0
Cu 59.565 -48.735 0.0
Cu 61.37 -54.15 0.0
Cu 59.565 -52.345 0.0
Cu 61.37 -57.76 0.0
Cu 59.565 -55.955 0.0
Cu 61.37 -61.37 0.0
Cu 59.565 -59.565 0.0
Cu 61.37 -64.98 0.0
Cu 59.565 -63.175 0.0
Cu 61.37 -68.59 0.0
Cu 59.565 -66.785 0.0
Cu 61.37 -72.2 0.0
Cu 59.565 -70.39500000000001 0.0
Cu 61.37 -75.81 0.0
Cu 59.565 -74.005 0.0
Cu 61.37 -79.42 0.0
Cu 59.565 -77.61500000000001 0.0
Cu 61.37 -83.03 0.0
Cu 59.565 -81.225 0.0
Cu 61.37 -86.64 0.0
Cu 59.565 -84.83500000000001 0.0
Cu 61.37 -90.25 0.0
Cu 59.565 -88.445 0.0
Cu 61.37 -93.86 0.0
Cu 59.565 -92.055 0.0
Cu 61.37 -97.47 0.0
Cu 59.565 -95.66499999999999 0.0
Cu 61.37 -101.08 0.0
Cu 59.565 -99.275 0.0
Cu 61.37 -104.69 0.0
Cu 59.565 -102.88499999999999 0.0
Cu 61.37 -108.3 0.0
Cu 59.565 -106.495 0.0
Cu 64.98 0.0 0.0
Cu 64.98 -3.61 0.0
Cu 63.175 -1.805 0.0
Cu 64.98 -7.22 0.0
Cu 63.175 -5.415 0.0
Cu 64.98 -10.83 0.0
Cu 63.175 -9.025 0.0
Cu 64.98 -14.44 0.0
Cu 63.175 -12.635 0.0
Cu 64.98 -18.05 0.0
Cu 63.175 -16.245 0.0
Cu 64.98 -21.66 0.0
Cu 63.175 -19.855 0.0
Cu 64.98 -25.27 0.0
Cu 63.175 -23.465 0.0
Cu 64.98 -28.88 0.0
Cu 63.175 -27.075 0.0
Cu 64.98 -32.49 0.0
Cu 63.175 -30.685000000000002 0.0
Cu 64.98 -36.1 0.0
Cu 63.175 -34.295 0.0
Cu 64.98 -39.71 0.0
Cu 63.175 -37.905 0.0
Cu 64.98 -43.32 0.0
Cu 63.175 -41.515 0.0
Cu 64.98 -46.93 0.0
Cu 63.175 -45.125 0.0
Cu 64.98 -50.54 0.0
Cu 63.175 -48.735 0.0
Cu 64.98 -54.15 0.0
Cu 63.175 -52.345 0.0
Cu 64.98 -57.76 0.0
Cu 63.175 -55.955 0.0
Cu 64.98 -61.37 0.0
Cu 63.175 -59.565 0.0
Cu 64.98 -64.98 0.0
Cu 63.175 -63.175 0.0
Cu 64.98 -68.59 0.0
Cu 63.175 -66.785 0.0
Cu 64.98 -72.2 0.0
Cu 63.175 -70.39500000000001 0.0
Cu 64.98 -75.81 0.0
Cu 63.175 -74.005 0.0
Cu 64.98 -79.42 0.0
Cu 63.175 -77.61500000000001 0.0
Cu 64.98 -83.03 0.0
Cu 63.175 -81.225 0.0
Cu 64.98 -86.64 0.0
Cu 63.175 -84.83500000000001 0.0
Cu 64.98 -90.25 0.0
Cu 63.175 -88.445 0.0
Cu 64.98 -93.86 0.0
Cu 63.175 -92.055 0.0
Cu 64.98 -97.47 0.0
Cu 63.175 -95.66499999999999 0.0
Cu 64.98 -101.08 0.0
Cu 63.175 -99.275 0.0
Cu 64.98 -104.69 0.0
Cu 63.175 -102.88499999999999 0.0
Cu 64.98 -108.3 0.0
Cu 63.175 -106.495 0.0
Cu 68.59 0.0 0.0
Cu 68.59 -3.61 0.0
Cu 66.785 -1.805 0.0
Cu 68.59 -7.22 0.0
Cu 66.785 -5.415 0.0
Cu 68.59 -10.83 0.0
Cu 66.785 -9.025 0.0
Cu 68.59 -14.44 0.0
Cu 66.785 -12.635 0.0
Cu 68.59 -18.05 0.0
Cu 66.785 -16.245 0.0
Cu 68.59 -21.66 0.0
Cu 66.785 -19.855 0.0
Cu 68.59 -25.27 0.0
Cu 66.785 -23.465 0.0
Cu 68.59 -28.88 0.0
Cu 66.785 -27.075 0.0
Cu 68.59 -32.49 0.0
Cu 66.785 -30.685000000000002 0.0
Cu 68.59 -36.1 0.0
Cu 66.785 -34.295 0.0
Cu 68.59 -39.71 0.0
Cu 66.785 -37.905 0.0
Cu 68.59 -43.32 0.0
Cu 66.785 -41.515 0.0
Cu 68.59 -46.93 0.0
Cu 66.785 -45.125 0.0
Cu 68.59 -50.54 0.0
Cu 66.785 -48.735 0.0
Cu 68.59 -54.15 0.0
Cu 66.785 -52.345 0.0
Cu 68.59 -57.76 0.0
Cu 66.785 -55.955 0.0
Cu 68.59 -61.37 0.0
Cu 66.785 -59.565 0.0
Cu 68.59 -64.98 0.0
Cu 66.785 -63.175 0.0
Cu 68.59 -68.59 0.0
Cu 66.785 -66.785 0.0
Cu 68.59 -72.2 0.0
Cu 66.785 -70.39500000000001 0.0
Cu 68.59 -75.81 0.0
Cu 66.785 -74.005 0.0
Cu 68.59 -79.42 0.0
Cu 66.785 -77.61500000000001 0.0
Cu 68.59 -83.03 0.0
Cu 66.785 -81.225 0.0
Cu 68.59 -86.64 0.0
Cu 66.785 -84.83500000000001 0.0
Cu 68.59 -90.25 0.0
Cu 66.785 -88.445 0.0
Cu 68.59 -93.86 0.0
Cu 66.785 -92.055 0.0
Cu 68.59 -97.47 0.0
Cu 66.785 -95.66499999999999 0.0
Cu 68.59 -101.08 0.0
Cu 66.785 -99.275 0.0
Cu 68.59 -104.69 0.0
Cu 66.785 -102.88499999999999 0.0
Cu 68.59 -108.3 0.0
Cu 66.785 -106.495 0.0
Cu 72.2 0.0 0.0
Cu 72.2 -3.61 0.0
Cu 70.39500000000001 -1.805 0.0
Cu 72.2 -7.22 0.0
Cu 70.39500000000001 -5.415 0.0
Cu 72.2 -10.83 0.0
Cu 70.39500000000001 -9.025 0.0
Cu 72.2 -14.44 0.0
Cu 70.39500000000001 -12.635 0.0
Cu 72.2 -18.05 0.0
Cu 70.39500000000001 -16.245 0.0
Cu 72.2 -21.66 0.0
Cu 70.39500000000001 -19.855 0.0
Cu 72.2 -25.27 0.0
Cu 70.39500000000001 -23.465 0.0
Cu 72.2 -28.88 0.0
Cu 70.39500000000001 -27.075 0.0
Cu 72.2 -32.49 0.0
Cu 70.39500000000001 -30.685000000000002 0.0
Cu 72.2 -36.1 0.0
Cu 70.39500000000001 -34.295 0.0
Cu 72.2 -39.71 0.0
Cu 70.39500000000001 -37.905 0.0
Cu 72.2 -43.32 0.0
Cu 70.39500000000001 -41.515 0.0
Cu 72.2 -46.93 0.0
Cu 70.39500000000001 -45.125 0.0
Cu 72.2 -50.54 0.0
Cu 70.39500000000001 -48.735 0.0
Cu 72.2 -54.15 0.0
Cu 70.39500000000001 -52.345 0.0
Cu 72.2 -57.76 0.0
Cu 70.39500000000001 -55.955 0.0
Cu 72.2 -61.37 0.0
Cu 70.39500000000001 -59.565 0.0
Cu 72.2 -64.98 0.0
Cu 70.39500000000001 -63.175 0.0
Cu 72.2 -68.59 0.0
Cu 70.39500000000001 -66.785 0.0
Cu 72.2 -72.2 0.0
Cu 70.39500000000001 -70.39500000000001 0.0
Cu 72.2 -75.81 0.0
Cu 70.39500000000001 -74.005 0.0
Cu 72.2 -79.42 0.0
Cu 70.39500000000001 -77.61500000000001 0.0
Cu 72.2 -83.03 0.0
Cu 70.39500000000001 -81.225 0.0
Cu 72.2 -86.64 0.0
Cu 70.39500000000001 -84.83500000000001 0.0
Cu 72.2 -90.25 0.0
Cu 70.39500000000001 -88.445 0.0
Cu 72.2 -93.86 0.0
Cu 70.39500000000001 -92.055 0.0
Cu 72.2 -97.47 0.0
Cu 70.39500000000001 -95.66499999999999 0.0
Cu 72.2 -101.08 0.0
Cu 70.39500000000001 -99.275 0.0
Cu 72.2 -104.69 0.0
Cu 70.39500000000001 -102.88499999999999 0.0
Cu 72.2 -108.3 0.0
Cu 70.39500000000001 -106.495 0.0
Cu 75.81 0.0 0.0
Cu 75.81 -3.61 0.0
Cu 74.005 -1.805 0.0
Cu 75.81 -7.22 0.0
Cu 74.005 -5.415 0.0
Cu 75.81 -10.83 0.0
Cu 74.005 -9.025 0.0
Cu 75.81 -14.44 0.0
Cu 74.005 -12.635 0.0
Cu 75.81 -18.05 0.0
Cu 74.005 -16.245 0.0
Cu 75.81 -21.66 0.0
Cu 74.005 -19.855 0.0
Cu 75.81 -25.27 0.0
Cu 74.005 -23.465 0.0
Cu 75.81 -28.88 0.0
Cu 74.005 -27.075 0.0
Cu 75.81 -32.49 0.0
Cu 74.005 -30.685000000000002 0.0
Cu 75.81 -36.1 0.0
Cu 74.005 -34.295 0.0
Cu 75.81 -39.71 0.0
Cu 74.005 -37.905 0.0
Cu 75.81 -43.32 0.0
Cu 74.005 -41.515 0.0
Cu 75.81 -46.93 0.0
Cu 74.005 -45.125 0.0
Cu 75.81 -50.54 0.0
Cu 74.005 -48.735 0.0
Cu 75.81 -54.15 0.0
Cu 74.005 -52.345 0.0
Cu 75.81 -57.76 0.0
Cu 74.005 -55.955 0.0
Cu 75.81 -61.37 0.0
Cu 74.005 -59.565 0.0
Cu 75.81 -64.98 0.0
Cu 74.005 -63.175 0.0
Cu 75.81 -68.59 0.0
Cu 74.005 -66.785 0.0
Cu 75.81 -72.2 0.0
Cu 74.005 -70.39500000000001 0.0
Cu 75.81 -75.81 0.0
Cu 74.005 -74.005 0.0
Cu 75.81 -79.42 0.0
Cu 74.005 -77.61500000000001 0.0
Cu 75.81 -83.03 0.0
Cu 74.005 -81.225 0.0
Cu 75.81 -86.64 0.0
Cu 74.005 -84.83500000000001 0.0
Cu 75.81 -90.25 0.0
Cu 74.005 -88.445 0.0
Cu 75.81 -93.86 0.0
Cu 74.005 -92.055 0.0
Cu 75.81 -97.47 0.0
Cu 74.005 -95.66499999999999 0.0
Cu 75.81 -101.08 0.0
Cu 74.005 -99.275 0.0
Cu 75.81 -104.69 0.0
Cu 74.005 -102.88499999999999 0.0
Cu 75.81 -108.3 0.0
Cu 74.005 -106.495 0.0
Cu 79.42 0.0 0.0
Cu 79.42 -3.61 0.0
Cu 77.61500000000001 -1.805 0.0
Cu 79.42 -7.22 0.0
Cu 77.61500000000001 -5.415 0.0
Cu 79.42 -10.83 0.0
Cu 77.61500000000001 -9.025 0.0
Cu 79.42 -14.44 0.0
Cu 77.61500000000001 -12.635 0.0
Cu 79.42 -18.05 0.0
Cu 77.61500000000001 -16.245 0.0
Cu 79.42 -21.66 0.0
Cu 77.61500000000001 -19.855 0.0
Cu 79.42 -25.27 0.0
Cu 77.61500000000001 -23.465 0.0
Cu 79.42 -28.88 0.0
Cu 77.61500000000001 -27.075 0.0
Cu 79.42 -32.49 0.0
Cu 77.61500000000001 -30.685000000000002 0.0
Cu 79.42 -36.1 0.0
Cu 77.61500000000001 -34.295 0.0
Cu 79.42 -39.71 0.0
Cu 77.61500000000001 -37.905 0.0
Cu 79.42 -43.32 0.0
Cu 77.61500000000001 -41.515 0.0
Cu 79.42 -46.93 0.0
Cu 77.61500000000001 -45.125 0.0
Cu 79.42 -50.54 0.0
Cu 77.61500000000001 -48.735 0.0
Cu 79.42 -54.15 0.0